# vtk DataFile Version 3.0
Network_data
ASCII
DATASET UNSTRUCTURED_GRID
POINTS 118 float
129.289000000000 127.719000000000 0.000000000000
130.336000000000 127.195000000000 -76.875000000000
117.774000000000 124.055000000000 -86.250000000000
105.734000000000 123.531000000000 -80.625000000000
103.117000000000 120.914000000000 -81.250000000000
98.406300000000 111.492000000000 -80.000000000000
90.554800000000 119.867000000000 -78.125000000000
109.922000000000 119.867000000000 -105.625000000000
104.688000000000 108.352000000000 -108.750000000000
102.594000000000 100.500000000000 -110.625000000000
99.976700000000 84.797000000000 -112.500000000000
97.359500000000 102.070000000000 -110.000000000000
106.781000000000 120.914000000000 -110.000000000000
104.164000000000 127.195000000000 -106.250000000000
105.211000000000 121.438000000000 -113.125000000000
102.594000000000 121.961000000000 -117.500000000000
101.024000000000 121.438000000000 -120.625000000000
92.125100000000 115.156000000000 -126.875000000000
88.461000000000 111.492000000000 -131.875000000000
98.929800000000 123.531000000000 -125.625000000000
91.601600000000 122.484000000000 -131.250000000000
97.882900000000 126.672000000000 -129.375000000000
96.836000000000 129.289000000000 -134.375000000000
88.984500000000 133.477000000000 -141.250000000000
98.406300000000 139.235000000000 -148.125000000000
157.031000000000 120.914000000000 -100.625000000000
167.500000000000 113.586000000000 -96.875000000000
168.547000000000 113.586000000000 -95.000000000000
173.258000000000 107.305000000000 -88.125000000000
172.211000000000 104.164000000000 -86.875000000000
170.117000000000 99.976700000000 -80.000000000000
186.867000000000 104.164000000000 -80.625000000000
171.688000000000 118.297000000000 -85.000000000000
170.117000000000 121.438000000000 -77.500000000000
170.117000000000 121.961000000000 -75.625000000000
171.688000000000 127.719000000000 -68.750000000000
172.211000000000 109.399000000000 -101.875000000000
177.969000000000 108.352000000000 -101.250000000000
175.875000000000 102.594000000000 -108.125000000000
160.695000000000 124.055000000000 -107.500000000000
162.789000000000 135.047000000000 -113.750000000000
169.594000000000 143.945000000000 -121.250000000000
165.930000000000 122.484000000000 -116.250000000000
171.164000000000 118.820000000000 -121.250000000000
172.211000000000 114.109000000000 -129.375000000000
168.024000000000 124.578000000000 -120.625000000000
170.117000000000 130.336000000000 -133.750000000000
170.117000000000 135.047000000000 -138.750000000000
174.305000000000 141.328000000000 -142.500000000000
169.070000000000 137.664000000000 -145.625000000000
176.922000000000 132.430000000000 -141.250000000000
177.445000000000 132.953000000000 -148.125000000000
190.531000000000 139.758000000000 -154.375000000000
174.828000000000 124.578000000000 -127.500000000000
180.586000000000 128.242000000000 -128.750000000000
193.672000000000 127.719000000000 -135.000000000000
201.524000000000 129.289000000000 -138.125000000000
182.156000000000 124.578000000000 -137.500000000000
192.625000000000 127.195000000000 -146.250000000000
96.312600000000 119.867000000000 -58.750000000000
88.984500000000 103.117000000000 -79.375000000000
101.547000000000 91.601600000000 -71.250000000000
79.562600000000 125.102000000000 -70.625000000000
79.562600000000 119.867000000000 -80.000000000000
101.024000000000 71.711000000000 -115.625000000000
98.929800000000 76.945400000000 -118.125000000000
101.024000000000 95.265700000000 -115.000000000000
83.750100000000 99.453200000000 -109.375000000000
84.797000000000 84.797000000000 -118.750000000000
103.117000000000 137.664000000000 -105.000000000000
87.937600000000 137.664000000000 -107.500000000000
82.703200000000 114.633000000000 -128.125000000000
76.421900000000 105.734000000000 -142.500000000000
80.086000000000 96.836000000000 -145.625000000000
84.797000000000 125.625000000000 -131.875000000000
71.711000000000 119.867000000000 -153.750000000000
85.843800000000 148.656000000000 -131.250000000000
83.226600000000 140.805000000000 -146.875000000000
75.375100000000 135.570000000000 -160.625000000000
103.117000000000 144.992000000000 -157.500000000000
94.742300000000 147.086000000000 -160.000000000000
109.399000000000 134.000000000000 -126.250000000000
109.922000000000 119.867000000000 -143.125000000000
169.070000000000 96.836000000000 -71.875000000000
166.453000000000 84.273500000000 -76.875000000000
175.875000000000 92.125100000000 -89.375000000000
206.235000000000 96.836000000000 -79.375000000000
188.438000000000 104.164000000000 -82.500000000000
171.164000000000 117.774000000000 -60.625000000000
175.875000000000 128.242000000000 -58.750000000000
170.641000000000 135.047000000000 -64.375000000000
165.406000000000 125.625000000000 -74.375000000000
177.969000000000 125.625000000000 -82.500000000000
189.485000000000 99.976700000000 -104.375000000000
190.531000000000 112.016000000000 -99.375000000000
180.063000000000 94.218800000000 -110.000000000000
182.156000000000 91.601600000000 -125.000000000000
156.508000000000 140.281000000000 -135.625000000000
167.500000000000 149.703000000000 -126.250000000000
180.586000000000 154.414000000000 -130.625000000000
177.445000000000 118.297000000000 -121.875000000000
171.164000000000 113.586000000000 -137.500000000000
175.875000000000 110.445000000000 -137.500000000000
175.875000000000 148.656000000000 -146.875000000000
187.914000000000 153.891000000000 -165.625000000000
165.930000000000 142.375000000000 -150.000000000000
175.875000000000 149.703000000000 -169.375000000000
181.110000000000 129.813000000000 -155.000000000000
190.008000000000 141.328000000000 -170.625000000000
197.860000000000 138.188000000000 -157.500000000000
199.953000000000 145.516000000000 -165.625000000000
197.860000000000 124.055000000000 -139.375000000000
212.516000000000 130.336000000000 -142.500000000000
210.422000000000 139.235000000000 -145.000000000000
206.235000000000 143.422000000000 -142.500000000000
207.281000000000 119.867000000000 -159.375000000000
200.477000000000 131.906000000000 -147.500000000000
209.899000000000 130.860000000000 -166.875000000000


CELLS 117 351
2 0 1
2 1 2
2 2 3
2 3 4
2 4 5
2 4 6
2 2 7
2 7 8
2 8 9
2 9 10
2 8 11
2 7 12
2 12 13
2 12 14
2 14 15
2 15 16
2 16 17
2 17 18
2 16 19
2 19 20
2 19 21
2 21 22
2 22 23
2 22 24
2 1 25
2 25 26
2 26 27
2 27 28
2 28 29
2 29 30
2 28 31
2 27 32
2 32 33
2 33 34
2 34 35
2 26 36
2 36 37
2 36 38
2 25 39
2 39 40
2 40 41
2 39 42
2 42 43
2 43 44
2 42 45
2 45 46
2 46 47
2 47 48
2 47 49
2 46 50
2 50 51
2 50 52
2 45 53
2 53 54
2 54 55
2 55 56
2 53 57
2 57 58
2 3 59
2 5 60
2 5 61
2 6 62
2 6 63
2 10 64
2 10 65
2 9 66
2 11 67
2 11 68
2 13 69
2 13 70
2 17 71
2 18 72
2 18 73
2 20 74
2 20 75
2 21 76
2 23 77
2 23 78
2 24 79
2 24 80
2 15 81
2 14 82
2 30 83
2 30 84
2 29 85
2 31 86
2 31 87
2 34 88
2 35 89
2 35 90
2 33 91
2 32 92
2 37 93
2 37 94
2 38 95
2 38 96
2 40 97
2 41 98
2 41 99
2 43 100
2 44 101
2 44 102
2 48 103
2 48 104
2 49 105
2 49 106
2 51 107
2 51 108
2 52 109
2 52 110
2 55 111
2 56 112
2 56 113
2 54 114
2 57 115
2 58 116
2 58 117


CELL_TYPES 117
3
3
3
3
3
3
3
3
3
3
3
3
3
3
3
3
3
3
3
3
3
3
3
3
3
3
3
3
3
3
3
3
3
3
3
3
3
3
3
3
3
3
3
3
3
3
3
3
3
3
3
3
3
3
3
3
3
3
3
3
3
3
3
3
3
3
3
3
3
3
3
3
3
3
3
3
3
3
3
3
3
3
3
3
3
3
3
3
3
3
3
3
3
3
3
3
3
3
3
3
3
3
3
3
3
3
3
3
3
3
3
3
3
3
3
3
3


CELL_DATA 117

SCALARS Nbranches float
LOOKUP_TABLE default
1.000000000000
1.000000000000
1.000000000000
1.000000000000
1.000000000000
1.000000000000
1.000000000000
1.000000000000
1.000000000000
1.000000000000
1.000000000000
1.000000000000
1.000000000000
1.000000000000
1.000000000000
1.000000000000
1.000000000000
1.000000000000
1.000000000000
1.000000000000
1.000000000000
1.000000000000
1.000000000000
1.000000000000
1.000000000000
1.000000000000
1.000000000000
1.000000000000
1.000000000000
1.000000000000
1.000000000000
1.000000000000
1.000000000000
1.000000000000
1.000000000000
1.000000000000
1.000000000000
1.000000000000
1.000000000000
1.000000000000
1.000000000000
1.000000000000
1.000000000000
1.000000000000
1.000000000000
1.000000000000
1.000000000000
1.000000000000
1.000000000000
1.000000000000
1.000000000000
1.000000000000
1.000000000000
1.000000000000
1.000000000000
1.000000000000
1.000000000000
1.000000000000
1.000000000000
1.000000000000
1.000000000000
1.000000000000
1.000000000000
1.000000000000
1.000000000000
1.000000000000
1.000000000000
1.000000000000
1.000000000000
1.000000000000
1.000000000000
1.000000000000
1.000000000000
1.000000000000
1.000000000000
1.000000000000
1.000000000000
1.000000000000
1.000000000000
1.000000000000
1.000000000000
1.000000000000
1.000000000000
1.000000000000
1.000000000000
1.000000000000
1.000000000000
1.000000000000
1.000000000000
1.000000000000
1.000000000000
1.000000000000
1.000000000000
1.000000000000
1.000000000000
1.000000000000
1.000000000000
1.000000000000
1.000000000000
1.000000000000
1.000000000000
1.000000000000
1.000000000000
1.000000000000
1.000000000000
1.000000000000
1.000000000000
1.000000000000
1.000000000000
1.000000000000
1.000000000000
1.000000000000
1.000000000000
1.000000000000
1.000000000000
1.000000000000
1.000000000000

SCALARS Inner_rad float
LOOKUP_TABLE default
5.400000000000
5.200000000000
3.500000000000
2.700000000000
1.300000000000
1.200000000000
3.600000000000
2.900000000000
1.500000000000
1.000000000000
1.300000000000
4.100000000000
3.000000000000
3.000000000000
2.900000000000
2.700000000000
1.500000000000
1.200000000000
2.400000000000
1.200000000000
1.900000000000
1.700000000000
1.200000000000
1.300000000000
3.500000000000
3.200000000000
3.500000000000
2.100000000000
1.600000000000
1.200000000000
1.100000000000
2.300000000000
1.400000000000
1.500000000000
0.890000000000
2.000000000000
1.200000000000
1.400000000000
3.300000000000
2.000000000000
2.100000000000
2.700000000000
2.300000000000
1.400000000000
2.800000000000
1.500000000000
1.700000000000
2.400000000000
1.800000000000
1.600000000000
1.900000000000
2.200000000000
1.700000000000
1.400000000000
3.200000000000
1.700000000000
1.400000000000
2.000000000000
1.100000000000
0.790000000000
0.920000000000
0.620000000000
0.720000000000
0.780000000000
0.590000000000
0.820000000000
0.830000000000
0.810000000000
1.000000000000
0.990000000000
0.800000000000
0.770000000000
0.790000000000
0.740000000000
0.750000000000
0.790000000000
0.760000000000
0.680000000000
0.720000000000
0.650000000000
0.810000000000
1.100000000000
0.770000000000
0.620000000000
1.100000000000
1.700000000000
1.700000000000
1.100000000000
0.630000000000
0.750000000000
0.930000000000
0.960000000000
0.840000000000
0.760000000000
0.920000000000
1.400000000000
2.500000000000
2.500000000000
2.100000000000
1.300000000000
0.860000000000
0.980000000000
1.700000000000
2.200000000000
2.100000000000
2.200000000000
1.300000000000
2.100000000000
1.700000000000
1.100000000000
0.780000000000
3.200000000000
2.800000000000
2.100000000000
1.800000000000
1.900000000000
1.600000000000
