# vtk DataFile Version 3.0
Network_data
ASCII
DATASET UNSTRUCTURED_GRID
POINTS 244 float
129.289000000000 127.719000000000 0.000000000000
130.336000000000 127.195000000000 -76.875000000000
117.774000000000 124.055000000000 -86.250000000000
105.734000000000 123.531000000000 -80.625000000000
103.117000000000 120.914000000000 -81.250000000000
98.406300000000 111.492000000000 -80.000000000000
90.554800000000 119.867000000000 -78.125000000000
109.922000000000 119.867000000000 -105.625000000000
104.688000000000 108.352000000000 -108.750000000000
102.594000000000 100.500000000000 -110.625000000000
99.976700000000 84.797000000000 -112.500000000000
97.359500000000 102.070000000000 -110.000000000000
106.781000000000 120.914000000000 -110.000000000000
104.164000000000 127.195000000000 -106.250000000000
105.211000000000 121.438000000000 -113.125000000000
102.594000000000 121.961000000000 -117.500000000000
101.024000000000 121.438000000000 -120.625000000000
92.125100000000 115.156000000000 -126.875000000000
88.461000000000 111.492000000000 -131.875000000000
98.929800000000 123.531000000000 -125.625000000000
91.601600000000 122.484000000000 -131.250000000000
97.882900000000 126.672000000000 -129.375000000000
96.836000000000 129.289000000000 -134.375000000000
88.984500000000 133.477000000000 -141.250000000000
98.406300000000 139.235000000000 -148.125000000000
157.031000000000 120.914000000000 -100.625000000000
167.500000000000 113.586000000000 -96.875000000000
168.547000000000 113.586000000000 -95.000000000000
173.258000000000 107.305000000000 -88.125000000000
172.211000000000 104.164000000000 -86.875000000000
170.117000000000 99.976700000000 -80.000000000000
186.867000000000 104.164000000000 -80.625000000000
171.688000000000 118.297000000000 -85.000000000000
170.117000000000 121.438000000000 -77.500000000000
170.117000000000 121.961000000000 -75.625000000000
171.688000000000 127.719000000000 -68.750000000000
172.211000000000 109.399000000000 -101.875000000000
177.969000000000 108.352000000000 -101.250000000000
175.875000000000 102.594000000000 -108.125000000000
160.695000000000 124.055000000000 -107.500000000000
162.789000000000 135.047000000000 -113.750000000000
169.594000000000 143.945000000000 -121.250000000000
165.930000000000 122.484000000000 -116.250000000000
171.164000000000 118.820000000000 -121.250000000000
172.211000000000 114.109000000000 -129.375000000000
168.024000000000 124.578000000000 -120.625000000000
170.117000000000 130.336000000000 -133.750000000000
170.117000000000 135.047000000000 -138.750000000000
174.305000000000 141.328000000000 -142.500000000000
169.070000000000 137.664000000000 -145.625000000000
176.922000000000 132.430000000000 -141.250000000000
177.445000000000 132.953000000000 -148.125000000000
190.531000000000 139.758000000000 -154.375000000000
174.828000000000 124.578000000000 -127.500000000000
180.586000000000 128.242000000000 -128.750000000000
193.672000000000 127.719000000000 -135.000000000000
201.524000000000 129.289000000000 -138.125000000000
182.156000000000 124.578000000000 -137.500000000000
192.625000000000 127.195000000000 -146.250000000000
96.312600000000 119.867000000000 -58.750000000000
88.984500000000 103.117000000000 -79.375000000000
101.547000000000 91.601600000000 -71.250000000000
79.562600000000 125.102000000000 -70.625000000000
79.562600000000 119.867000000000 -80.000000000000
101.024000000000 71.711000000000 -115.625000000000
98.929800000000 76.945400000000 -118.125000000000
101.024000000000 95.265700000000 -115.000000000000
83.750100000000 99.453200000000 -109.375000000000
84.797000000000 84.797000000000 -118.750000000000
103.117000000000 137.664000000000 -105.000000000000
87.937600000000 137.664000000000 -107.500000000000
82.703200000000 114.633000000000 -128.125000000000
76.421900000000 105.734000000000 -142.500000000000
80.086000000000 96.836000000000 -145.625000000000
84.797000000000 125.625000000000 -131.875000000000
71.711000000000 119.867000000000 -153.750000000000
85.843800000000 148.656000000000 -131.250000000000
83.226600000000 140.805000000000 -146.875000000000
75.375100000000 135.570000000000 -160.625000000000
103.117000000000 144.992000000000 -157.500000000000
94.742300000000 147.086000000000 -160.000000000000
109.399000000000 134.000000000000 -126.250000000000
109.922000000000 119.867000000000 -143.125000000000
169.070000000000 96.836000000000 -71.875000000000
166.453000000000 84.273500000000 -76.875000000000
175.875000000000 92.125100000000 -89.375000000000
206.235000000000 96.836000000000 -79.375000000000
188.438000000000 104.164000000000 -82.500000000000
171.164000000000 117.774000000000 -60.625000000000
175.875000000000 128.242000000000 -58.750000000000
170.641000000000 135.047000000000 -64.375000000000
165.406000000000 125.625000000000 -74.375000000000
177.969000000000 125.625000000000 -82.500000000000
189.485000000000 99.976700000000 -104.375000000000
190.531000000000 112.016000000000 -99.375000000000
180.063000000000 94.218800000000 -110.000000000000
182.156000000000 91.601600000000 -125.000000000000
156.508000000000 140.281000000000 -135.625000000000
167.500000000000 149.703000000000 -126.250000000000
180.586000000000 154.414000000000 -130.625000000000
177.445000000000 118.297000000000 -121.875000000000
171.164000000000 113.586000000000 -137.500000000000
175.875000000000 110.445000000000 -137.500000000000
175.875000000000 148.656000000000 -146.875000000000
187.914000000000 153.891000000000 -165.625000000000
165.930000000000 142.375000000000 -150.000000000000
175.875000000000 149.703000000000 -169.375000000000
181.110000000000 129.813000000000 -155.000000000000
190.008000000000 141.328000000000 -170.625000000000
197.860000000000 138.188000000000 -157.500000000000
199.953000000000 145.516000000000 -165.625000000000
197.860000000000 124.055000000000 -139.375000000000
212.516000000000 130.336000000000 -142.500000000000
210.422000000000 139.235000000000 -145.000000000000
206.235000000000 143.422000000000 -142.500000000000
207.281000000000 119.867000000000 -159.375000000000
200.477000000000 131.906000000000 -147.500000000000
209.899000000000 130.860000000000 -166.875000000000
155.917459970256 137.483440420176 -138.166932168837
153.055399446593 140.634109124075 -136.453803820935
160.320613279587 157.571973435008 -122.990657632508
166.578534250132 160.491103223273 -122.501605041784
184.888229756707 160.843589616594 -126.668842114471
188.468657525101 156.550060397846 -127.364880478099
181.483366805053 122.880297941104 -119.107167676118
181.436023134846 119.982855108320 -116.838779106226
165.170769121851 108.248231582285 -144.772340266976
166.263984810769 114.487917174846 -140.633246993940
180.838715623109 102.856684429895 -141.008630496892
175.258573361222 101.578009197581 -145.209537143695
173.863848212691 152.235624894376 -147.230374044402
178.382203335579 149.539073736759 -147.146077255940
187.836969587344 157.007708060595 -170.010446944520
190.436443359925 156.694032312376 -165.060328095801
163.011882372790 140.339536921466 -155.353877574102
162.496366075938 141.682070523276 -151.352078556136
173.495124947514 147.617249212791 -174.696289237644
173.041874890237 152.509486607895 -171.634893018982
180.791813616330 125.665039421167 -155.871760245958
177.683056208914 127.657841558391 -159.574076390455
190.850187705748 139.475634000410 -172.517550011074
189.939162161711 143.317125240709 -174.506776204372
199.693888616420 139.641197630188 -157.030008614202
198.158505496557 136.528456981492 -158.540706007602
202.072196208911 147.914232704956 -172.021034123865
203.050087874369 147.801320349647 -165.345086187327
202.392193059008 121.893740253870 -137.548769235589
198.187601144677 119.356352759935 -138.951976040918
217.432938827850 131.232940303212 -138.565657764741
216.258459885650 125.882868548864 -142.079199194271
213.211733877921 140.999497835209 -143.585367804779
212.277697130394 139.995355026872 -148.049534759044
206.895498274837 147.871407340854 -141.790952241317
213.024927471181 147.283356582597 -136.984399078942
212.156971359745 110.613392754219 -159.833187738693
208.842057330069 107.837904853081 -165.410653389113
200.850847059030 132.303528838157 -148.772795172285
201.116841427287 133.475763632749 -145.980404743626
214.100124132814 130.947385687472 -167.740412376965
211.561446029704 129.863264022964 -171.994888782572
158.220479389952 135.322303196882 -138.738814289712
154.479249357770 133.729364301170 -136.878146118940
148.525142679466 138.637992511079 -132.318146842935
151.664715688768 142.362463802253 -135.303413974668
155.813077627817 156.418821456216 -116.529597717092
157.058847315485 158.441317730643 -111.019413189821
166.572794102674 162.831205126686 -110.400776585254
169.574963267770 162.520788847960 -115.332589799995
184.158477900727 163.353000578238 -123.458347089412
187.265576741008 161.928713528562 -117.384190923386
192.144548656229 156.850172156377 -118.882876388969
190.975067225381 153.541993076430 -124.566001258287
182.555103162369 126.368981186358 -119.844918340478
182.812483468461 128.007138878434 -113.743649160264
180.471570994092 124.780984822731 -109.942138364603
179.431626434416 120.760351681686 -112.046149127550
158.988471817211 106.390504925843 -148.678083529213
163.030122722246 106.924722853795 -151.046578713735
163.076032613771 114.774864888327 -138.958172789500
165.734664274772 117.021099747379 -141.708246730943
184.503651838674 101.871498001443 -143.437468881541
183.888084688297 99.557028644881 -139.859485053799
176.405404670941 99.119026505831 -150.958984678269
176.321633436599 91.571765014203 -149.743123106647
171.627345466473 153.649968492225 -145.358924937549
173.748393989267 155.967581340197 -148.937781313179
180.223894839512 149.368676516969 -144.922298902245
180.245072964100 147.994570538515 -148.415699415270
190.067578666318 159.052769451032 -175.181682377692
186.100641326218 158.781287935248 -173.109890176064
189.512179456405 159.735638925326 -162.737717354640
192.255774891751 157.360032822218 -162.796504856293
162.002980889859 137.069048215593 -159.063836821123
159.140415265731 138.633268048721 -158.355185043890
161.238587334154 139.740364464423 -150.558736440214
160.340785951957 144.103043707099 -151.636925352183
170.240649912270 143.607239268078 -175.960537851036
170.906131573538 148.834177933474 -178.964730077882
169.861102735586 153.364937982698 -170.220323997000
173.432058646059 155.587232902988 -172.721822366244
183.161867673203 123.095698809305 -157.594931054686
180.384227778916 123.865271729152 -153.843812358648
174.832345687365 123.864515191678 -162.399070574382
174.760043292997 128.001009596811 -162.280728804644
192.019405134107 137.498461371327 -171.873317016285
189.116265075710 137.218064260030 -173.234694215836
188.746397587286 143.541926448114 -176.653151955457
190.398332082317 145.640085278335 -176.773003510095
199.525590671996 141.523459321804 -157.333604303424
199.641047247571 140.957595001407 -155.229467126807
198.144325293534 133.825727814100 -158.744406097945
196.694026716253 135.872959228636 -160.133729358129
205.134896029666 149.613465359813 -175.393068295896
202.328362332077 148.928752655318 -177.288397710063
203.625364075630 150.734174250909 -163.553144975681
205.901157605637 147.379388613240 -164.723075520537
204.036184269507 123.161165277861 -133.590346576941
204.447617397677 118.740252296155 -134.819296568778
197.457178108755 116.825419460844 -136.444373261851
197.947387933488 116.780774071063 -140.896506138596
217.205309099176 132.509665483831 -134.340275692299
219.001465246784 129.574142840091 -134.833219595745
218.295978308075 121.297124045906 -139.244275871078
217.958982861964 124.099139023361 -144.051844812651
213.629468224022 140.753376530407 -142.010260315598
215.840966968529 141.892064507678 -144.182369404445
214.822559721817 139.865333670447 -149.882976583867
212.185304160645 140.808867434611 -150.173833103182
206.220187255302 150.570205849893 -143.862255129613
204.842962960683 149.480928596059 -140.248760981854
212.215603439160 149.479955281244 -131.664782464953
213.683541147528 145.405621556135 -130.295754911201
216.355790161816 109.441952409685 -158.804939732597
212.186554187292 105.563775657785 -155.717741547235
212.857150954699 99.482866767887 -168.488740056019
206.020793077086 97.849121711302 -166.339746800660
202.283600344493 130.489076252757 -150.483171248714
199.197551376653 131.802025374567 -150.910172006680
198.822924921599 135.539310060293 -144.620397775687
200.068995967097 133.699253238444 -142.724976678377
215.699474517956 133.306246667300 -167.022866701915
216.689903410725 128.696412326109 -167.068028900631
213.270918800108 131.991329573441 -175.439183781926
212.786360382029 126.694406054092 -174.002827664551


CELLS 243 729
2 0 1
2 1 2
2 2 3
2 3 4
2 4 5
2 4 6
2 2 7
2 7 8
2 8 9
2 9 10
2 8 11
2 7 12
2 12 13
2 12 14
2 14 15
2 15 16
2 16 17
2 17 18
2 16 19
2 19 20
2 19 21
2 21 22
2 22 23
2 22 24
2 1 25
2 25 26
2 26 27
2 27 28
2 28 29
2 29 30
2 28 31
2 27 32
2 32 33
2 33 34
2 34 35
2 26 36
2 36 37
2 36 38
2 25 39
2 39 40
2 40 41
2 39 42
2 42 43
2 43 44
2 42 45
2 45 46
2 46 47
2 47 48
2 47 49
2 46 50
2 50 51
2 50 52
2 45 53
2 53 54
2 54 55
2 55 56
2 53 57
2 57 58
2 3 59
2 5 60
2 5 61
2 6 62
2 6 63
2 10 64
2 10 65
2 9 66
2 11 67
2 11 68
2 13 69
2 13 70
2 17 71
2 18 72
2 18 73
2 20 74
2 20 75
2 21 76
2 23 77
2 23 78
2 24 79
2 24 80
2 15 81
2 14 82
2 30 83
2 30 84
2 29 85
2 31 86
2 31 87
2 34 88
2 35 89
2 35 90
2 33 91
2 32 92
2 37 93
2 37 94
2 38 95
2 38 96
2 40 97
2 41 98
2 41 99
2 43 100
2 44 101
2 44 102
2 48 103
2 48 104
2 49 105
2 49 106
2 51 107
2 51 108
2 52 109
2 52 110
2 55 111
2 56 112
2 56 113
2 54 114
2 57 115
2 58 116
2 58 117
2 97 118
2 97 119
2 98 120
2 98 121
2 99 122
2 99 123
2 100 124
2 100 125
2 101 126
2 101 127
2 102 128
2 102 129
2 103 130
2 103 131
2 104 132
2 104 133
2 105 134
2 105 135
2 106 136
2 106 137
2 107 138
2 107 139
2 108 140
2 108 141
2 109 142
2 109 143
2 110 144
2 110 145
2 111 146
2 111 147
2 112 148
2 112 149
2 113 150
2 113 151
2 114 152
2 114 153
2 115 154
2 115 155
2 116 156
2 116 157
2 117 158
2 117 159
2 118 160
2 118 161
2 119 162
2 119 163
2 120 164
2 120 165
2 121 166
2 121 167
2 122 168
2 122 169
2 123 170
2 123 171
2 124 172
2 124 173
2 125 174
2 125 175
2 126 176
2 126 177
2 127 178
2 127 179
2 128 180
2 128 181
2 129 182
2 129 183
2 130 184
2 130 185
2 131 186
2 131 187
2 132 188
2 132 189
2 133 190
2 133 191
2 134 192
2 134 193
2 135 194
2 135 195
2 136 196
2 136 197
2 137 198
2 137 199
2 138 200
2 138 201
2 139 202
2 139 203
2 140 204
2 140 205
2 141 206
2 141 207
2 142 208
2 142 209
2 143 210
2 143 211
2 144 212
2 144 213
2 145 214
2 145 215
2 146 216
2 146 217
2 147 218
2 147 219
2 148 220
2 148 221
2 149 222
2 149 223
2 150 224
2 150 225
2 151 226
2 151 227
2 152 228
2 152 229
2 153 230
2 153 231
2 154 232
2 154 233
2 155 234
2 155 235
2 156 236
2 156 237
2 157 238
2 157 239
2 158 240
2 158 241
2 159 242
2 159 243


CELL_TYPES 243
3
3
3
3
3
3
3
3
3
3
3
3
3
3
3
3
3
3
3
3
3
3
3
3
3
3
3
3
3
3
3
3
3
3
3
3
3
3
3
3
3
3
3
3
3
3
3
3
3
3
3
3
3
3
3
3
3
3
3
3
3
3
3
3
3
3
3
3
3
3
3
3
3
3
3
3
3
3
3
3
3
3
3
3
3
3
3
3
3
3
3
3
3
3
3
3
3
3
3
3
3
3
3
3
3
3
3
3
3
3
3
3
3
3
3
3
3
3
3
3
3
3
3
3
3
3
3
3
3
3
3
3
3
3
3
3
3
3
3
3
3
3
3
3
3
3
3
3
3
3
3
3
3
3
3
3
3
3
3
3
3
3
3
3
3
3
3
3
3
3
3
3
3
3
3
3
3
3
3
3
3
3
3
3
3
3
3
3
3
3
3
3
3
3
3
3
3
3
3
3
3
3
3
3
3
3
3
3
3
3
3
3
3
3
3
3
3
3
3
3
3
3
3
3
3
3
3
3
3
3
3
3
3
3
3
3
3
3
3
3
3
3
3


CELL_DATA 243

SCALARS Nbranches float
LOOKUP_TABLE default
1.000000000000
1.000000000000
1.000000000000
1.000000000000
1.000000000000
1.000000000000
1.000000000000
1.000000000000
1.000000000000
1.000000000000
1.000000000000
1.000000000000
1.000000000000
1.000000000000
1.000000000000
1.000000000000
1.000000000000
1.000000000000
1.000000000000
1.000000000000
1.000000000000
1.000000000000
1.000000000000
1.000000000000
1.000000000000
1.000000000000
1.000000000000
1.000000000000
1.000000000000
1.000000000000
1.000000000000
1.000000000000
1.000000000000
1.000000000000
1.000000000000
1.000000000000
1.000000000000
1.000000000000
1.000000000000
1.000000000000
1.000000000000
1.000000000000
1.000000000000
1.000000000000
1.000000000000
1.000000000000
1.000000000000
1.000000000000
1.000000000000
1.000000000000
1.000000000000
1.000000000000
1.000000000000
1.000000000000
1.000000000000
1.000000000000
1.000000000000
1.000000000000
1.000000000000
1.000000000000
1.000000000000
1.000000000000
1.000000000000
1.000000000000
1.000000000000
1.000000000000
1.000000000000
1.000000000000
1.000000000000
1.000000000000
1.000000000000
1.000000000000
1.000000000000
1.000000000000
1.000000000000
1.000000000000
1.000000000000
1.000000000000
1.000000000000
1.000000000000
1.000000000000
1.000000000000
1.000000000000
1.000000000000
1.000000000000
1.000000000000
1.000000000000
1.000000000000
1.000000000000
1.000000000000
1.000000000000
1.000000000000
1.000000000000
1.000000000000
1.000000000000
1.000000000000
1.000000000000
1.000000000000
1.000000000000
1.000000000000
1.000000000000
1.000000000000
1.000000000000
1.000000000000
1.000000000000
1.000000000000
1.000000000000
1.000000000000
1.000000000000
1.000000000000
1.000000000000
1.000000000000
1.000000000000
1.000000000000
1.000000000000
1.000000000000
1.000000000000
1.000000000000
1.000000000000
1.000000000000
1.000000000000
1.000000000000
1.000000000000
1.000000000000
1.000000000000
1.000000000000
1.000000000000
1.000000000000
1.000000000000
1.000000000000
1.000000000000
1.000000000000
1.000000000000
1.000000000000
1.000000000000
1.000000000000
1.000000000000
1.000000000000
1.000000000000
1.000000000000
1.000000000000
1.000000000000
1.000000000000
1.000000000000
1.000000000000
1.000000000000
1.000000000000
1.000000000000
1.000000000000
1.000000000000
1.000000000000
1.000000000000
1.000000000000
1.000000000000
1.000000000000
1.000000000000
1.000000000000
1.000000000000
1.000000000000
1.000000000000
1.000000000000
1.000000000000
1.000000000000
1.000000000000
1.000000000000
1.000000000000
1.000000000000
1.000000000000
1.000000000000
1.000000000000
1.000000000000
1.000000000000
1.000000000000
1.000000000000
1.000000000000
1.000000000000
1.000000000000
1.000000000000
1.000000000000
1.000000000000
1.000000000000
1.000000000000
1.000000000000
1.000000000000
1.000000000000
1.000000000000
1.000000000000
1.000000000000
1.000000000000
1.000000000000
1.000000000000
1.000000000000
1.000000000000
1.000000000000
1.000000000000
1.000000000000
1.000000000000
1.000000000000
1.000000000000
1.000000000000
1.000000000000
1.000000000000
1.000000000000
1.000000000000
1.000000000000
1.000000000000
1.000000000000
1.000000000000
1.000000000000
1.000000000000
1.000000000000
1.000000000000
1.000000000000
1.000000000000
1.000000000000
1.000000000000
1.000000000000
1.000000000000
1.000000000000
1.000000000000
1.000000000000
1.000000000000
1.000000000000
1.000000000000
1.000000000000
1.000000000000
1.000000000000
1.000000000000
1.000000000000
1.000000000000
1.000000000000
1.000000000000
1.000000000000
1.000000000000
1.000000000000
1.000000000000
1.000000000000
1.000000000000
1.000000000000
1.000000000000
1.000000000000
1.000000000000
1.000000000000

SCALARS Inner_rad float
LOOKUP_TABLE default
5.400000000000
5.200000000000
3.500000000000
2.700000000000
1.300000000000
1.200000000000
3.600000000000
2.900000000000
1.500000000000
1.000000000000
1.300000000000
4.100000000000
3.000000000000
3.000000000000
2.900000000000
2.700000000000
1.500000000000
1.200000000000
2.400000000000
1.200000000000
1.900000000000
1.700000000000
1.200000000000
1.300000000000
3.500000000000
3.200000000000
3.500000000000
2.100000000000
1.600000000000
1.200000000000
1.100000000000
2.300000000000
1.400000000000
1.500000000000
0.890000000000
2.000000000000
1.200000000000
1.400000000000
3.300000000000
2.000000000000
2.100000000000
2.700000000000
2.300000000000
1.400000000000
2.800000000000
1.500000000000
1.700000000000
2.400000000000
1.800000000000
1.600000000000
1.900000000000
2.200000000000
1.700000000000
1.400000000000
3.200000000000
1.700000000000
1.400000000000
2.000000000000
1.100000000000
0.790000000000
0.920000000000
0.620000000000
0.720000000000
0.780000000000
0.590000000000
0.820000000000
0.830000000000
0.810000000000
1.000000000000
0.990000000000
0.800000000000
0.770000000000
0.790000000000
0.740000000000
0.750000000000
0.790000000000
0.760000000000
0.680000000000
0.720000000000
0.650000000000
0.810000000000
1.100000000000
0.770000000000
0.620000000000
1.100000000000
1.700000000000
1.700000000000
1.100000000000
0.630000000000
0.750000000000
0.930000000000
0.960000000000
0.840000000000
0.760000000000
0.920000000000
1.400000000000
2.500000000000
2.500000000000
2.100000000000
1.300000000000
0.860000000000
0.980000000000
1.700000000000
2.200000000000
2.100000000000
2.200000000000
1.300000000000
2.100000000000
1.700000000000
1.100000000000
0.780000000000
3.200000000000
2.800000000000
2.100000000000
1.800000000000
1.900000000000
1.600000000000
-1.000000000000
-1.000000000000
-1.000000000000
-1.000000000000
-1.000000000000
-1.000000000000
-1.000000000000
-1.000000000000
-1.000000000000
-1.000000000000
-1.000000000000
-1.000000000000
-1.000000000000
-1.000000000000
-1.000000000000
-1.000000000000
-1.000000000000
-1.000000000000
-1.000000000000
-1.000000000000
-1.000000000000
-1.000000000000
-1.000000000000
-1.000000000000
-1.000000000000
-1.000000000000
-1.000000000000
-1.000000000000
-1.000000000000
-1.000000000000
-1.000000000000
-1.000000000000
-1.000000000000
-1.000000000000
-1.000000000000
-1.000000000000
-1.000000000000
-1.000000000000
-1.000000000000
-1.000000000000
-1.000000000000
-1.000000000000
-1.000000000000
-1.000000000000
-1.000000000000
-1.000000000000
-1.000000000000
-1.000000000000
-1.000000000000
-1.000000000000
-1.000000000000
-1.000000000000
-1.000000000000
-1.000000000000
-1.000000000000
-1.000000000000
-1.000000000000
-1.000000000000
-1.000000000000
-1.000000000000
-1.000000000000
-1.000000000000
-1.000000000000
-1.000000000000
-1.000000000000
-1.000000000000
-1.000000000000
-1.000000000000
-1.000000000000
-1.000000000000
-1.000000000000
-1.000000000000
-1.000000000000
-1.000000000000
-1.000000000000
-1.000000000000
-1.000000000000
-1.000000000000
-1.000000000000
-1.000000000000
-1.000000000000
-1.000000000000
-1.000000000000
-1.000000000000
-1.000000000000
-1.000000000000
-1.000000000000
-1.000000000000
-1.000000000000
-1.000000000000
-1.000000000000
-1.000000000000
-1.000000000000
-1.000000000000
-1.000000000000
-1.000000000000
-1.000000000000
-1.000000000000
-1.000000000000
-1.000000000000
-1.000000000000
-1.000000000000
-1.000000000000
-1.000000000000
-1.000000000000
-1.000000000000
-1.000000000000
-1.000000000000
-1.000000000000
-1.000000000000
-1.000000000000
-1.000000000000
-1.000000000000
-1.000000000000
-1.000000000000
-1.000000000000
-1.000000000000
-1.000000000000
-1.000000000000
-1.000000000000
-1.000000000000
-1.000000000000
-1.000000000000
-1.000000000000
-1.000000000000
-1.000000000000
