# vtk DataFile Version 3.0
Network_data
ASCII
DATASET UNSTRUCTURED_GRID
POINTS 412 float
129.289000000000 127.719000000000 0.000000000000
130.336000000000 127.195000000000 -76.875000000000
117.774000000000 124.055000000000 -86.250000000000
105.734000000000 123.531000000000 -80.625000000000
103.117000000000 120.914000000000 -81.250000000000
98.406300000000 111.492000000000 -80.000000000000
90.554800000000 119.867000000000 -78.125000000000
109.922000000000 119.867000000000 -105.625000000000
104.688000000000 108.352000000000 -108.750000000000
102.594000000000 100.500000000000 -110.625000000000
99.976700000000 84.797000000000 -112.500000000000
97.359500000000 102.070000000000 -110.000000000000
106.781000000000 120.914000000000 -110.000000000000
104.164000000000 127.195000000000 -106.250000000000
105.211000000000 121.438000000000 -113.125000000000
102.594000000000 121.961000000000 -117.500000000000
101.024000000000 121.438000000000 -120.625000000000
92.125100000000 115.156000000000 -126.875000000000
88.461000000000 111.492000000000 -131.875000000000
98.929800000000 123.531000000000 -125.625000000000
91.601600000000 122.484000000000 -131.250000000000
97.882900000000 126.672000000000 -129.375000000000
96.836000000000 129.289000000000 -134.375000000000
88.984500000000 133.477000000000 -141.250000000000
98.406300000000 139.235000000000 -148.125000000000
157.031000000000 120.914000000000 -100.625000000000
167.500000000000 113.586000000000 -96.875000000000
168.547000000000 113.586000000000 -95.000000000000
173.258000000000 107.305000000000 -88.125000000000
172.211000000000 104.164000000000 -86.875000000000
170.117000000000 99.976700000000 -80.000000000000
186.867000000000 104.164000000000 -80.625000000000
171.688000000000 118.297000000000 -85.000000000000
170.117000000000 121.438000000000 -77.500000000000
170.117000000000 121.961000000000 -75.625000000000
171.688000000000 127.719000000000 -68.750000000000
172.211000000000 109.399000000000 -101.875000000000
177.969000000000 108.352000000000 -101.250000000000
175.875000000000 102.594000000000 -108.125000000000
160.695000000000 124.055000000000 -107.500000000000
162.789000000000 135.047000000000 -113.750000000000
169.594000000000 143.945000000000 -121.250000000000
165.930000000000 122.484000000000 -116.250000000000
171.164000000000 118.820000000000 -121.250000000000
172.211000000000 114.109000000000 -129.375000000000
168.024000000000 124.578000000000 -120.625000000000
170.117000000000 130.336000000000 -133.750000000000
170.117000000000 135.047000000000 -138.750000000000
174.305000000000 141.328000000000 -142.500000000000
169.070000000000 137.664000000000 -145.625000000000
176.922000000000 132.430000000000 -141.250000000000
177.445000000000 132.953000000000 -148.125000000000
190.531000000000 139.758000000000 -154.375000000000
174.828000000000 124.578000000000 -127.500000000000
180.586000000000 128.242000000000 -128.750000000000
193.672000000000 127.719000000000 -135.000000000000
201.524000000000 129.289000000000 -138.125000000000
182.156000000000 124.578000000000 -137.500000000000
192.625000000000 127.195000000000 -146.250000000000
96.312600000000 119.867000000000 -58.750000000000
88.984500000000 103.117000000000 -79.375000000000
101.547000000000 91.601600000000 -71.250000000000
79.562600000000 125.102000000000 -70.625000000000
79.562600000000 119.867000000000 -80.000000000000
101.024000000000 71.711000000000 -115.625000000000
98.929800000000 76.945400000000 -118.125000000000
101.024000000000 95.265700000000 -115.000000000000
83.750100000000 99.453200000000 -109.375000000000
84.797000000000 84.797000000000 -118.750000000000
103.117000000000 137.664000000000 -105.000000000000
87.937600000000 137.664000000000 -107.500000000000
82.703200000000 114.633000000000 -128.125000000000
76.421900000000 105.734000000000 -142.500000000000
80.086000000000 96.836000000000 -145.625000000000
84.797000000000 125.625000000000 -131.875000000000
71.711000000000 119.867000000000 -153.750000000000
85.843800000000 148.656000000000 -131.250000000000
83.226600000000 140.805000000000 -146.875000000000
75.375100000000 135.570000000000 -160.625000000000
103.117000000000 144.992000000000 -157.500000000000
94.742300000000 147.086000000000 -160.000000000000
109.399000000000 134.000000000000 -126.250000000000
109.922000000000 119.867000000000 -143.125000000000
169.070000000000 96.836000000000 -71.875000000000
166.453000000000 84.273500000000 -76.875000000000
175.875000000000 92.125100000000 -89.375000000000
206.235000000000 96.836000000000 -79.375000000000
188.438000000000 104.164000000000 -82.500000000000
171.164000000000 117.774000000000 -60.625000000000
175.875000000000 128.242000000000 -58.750000000000
170.641000000000 135.047000000000 -64.375000000000
165.406000000000 125.625000000000 -74.375000000000
177.969000000000 125.625000000000 -82.500000000000
189.485000000000 99.976700000000 -104.375000000000
190.531000000000 112.016000000000 -99.375000000000
180.063000000000 94.218800000000 -110.000000000000
182.156000000000 91.601600000000 -125.000000000000
156.508000000000 140.281000000000 -135.625000000000
167.500000000000 149.703000000000 -126.250000000000
180.586000000000 154.414000000000 -130.625000000000
177.445000000000 118.297000000000 -121.875000000000
171.164000000000 113.586000000000 -137.500000000000
175.875000000000 110.445000000000 -137.500000000000
175.875000000000 148.656000000000 -146.875000000000
187.914000000000 153.891000000000 -165.625000000000
165.930000000000 142.375000000000 -150.000000000000
175.875000000000 149.703000000000 -169.375000000000
181.110000000000 129.813000000000 -155.000000000000
190.008000000000 141.328000000000 -170.625000000000
197.860000000000 138.188000000000 -157.500000000000
199.953000000000 145.516000000000 -165.625000000000
197.860000000000 124.055000000000 -139.375000000000
212.516000000000 130.336000000000 -142.500000000000
210.422000000000 139.235000000000 -145.000000000000
206.235000000000 143.422000000000 -142.500000000000
207.281000000000 119.867000000000 -159.375000000000
200.477000000000 131.906000000000 -147.500000000000
209.899000000000 130.860000000000 -166.875000000000
155.917459970256 137.483440420176 -138.166932168837
153.055399446593 140.634109124075 -136.453803820935
160.320613279587 157.571973435008 -122.990657632508
166.578534250132 160.491103223273 -122.501605041784
184.888229756707 160.843589616594 -126.668842114471
188.468657525101 156.550060397846 -127.364880478099
181.483366805053 122.880297941104 -119.107167676118
181.436023134846 119.982855108320 -116.838779106226
165.170769121851 108.248231582285 -144.772340266976
166.263984810769 114.487917174846 -140.633246993940
180.838715623109 102.856684429895 -141.008630496892
175.258573361222 101.578009197581 -145.209537143695
173.863848212691 152.235624894376 -147.230374044402
178.382203335579 149.539073736759 -147.146077255940
187.836969587344 157.007708060595 -170.010446944520
190.436443359925 156.694032312376 -165.060328095801
163.011882372790 140.339536921466 -155.353877574102
162.496366075938 141.682070523276 -151.352078556136
173.495124947514 147.617249212791 -174.696289237644
173.041874890237 152.509486607895 -171.634893018982
180.791813616330 125.665039421167 -155.871760245958
177.683056208914 127.657841558391 -159.574076390455
190.850187705748 139.475634000410 -172.517550011074
189.939162161711 143.317125240709 -174.506776204372
199.693888616420 139.641197630188 -157.030008614202
198.158505496557 136.528456981492 -158.540706007602
202.072196208911 147.914232704956 -172.021034123865
203.050087874369 147.801320349647 -165.345086187327
202.392193059008 121.893740253870 -137.548769235589
198.187601144677 119.356352759935 -138.951976040918
217.432938827850 131.232940303212 -138.565657764741
216.258459885650 125.882868548864 -142.079199194271
213.211733877921 140.999497835209 -143.585367804779
212.277697130394 139.995355026872 -148.049534759044
206.895498274837 147.871407340854 -141.790952241317
213.024927471181 147.283356582597 -136.984399078942
212.156971359745 110.613392754219 -159.833187738693
208.842057330069 107.837904853081 -165.410653389113
200.850847059030 132.303528838157 -148.772795172285
201.116841427287 133.475763632749 -145.980404743626
214.100124132814 130.947385687472 -167.740412376965
211.561446029704 129.863264022964 -171.994888782572
158.220479389952 135.322303196882 -138.738814289712
154.479249357770 133.729364301170 -136.878146118940
148.525142679466 138.637992511079 -132.318146842935
151.664715688768 142.362463802253 -135.303413974668
155.813077627817 156.418821456216 -116.529597717092
157.058847315485 158.441317730643 -111.019413189821
166.572794102674 162.831205126686 -110.400776585254
169.574963267770 162.520788847960 -115.332589799995
184.158477900727 163.353000578238 -123.458347089412
187.265576741008 161.928713528562 -117.384190923386
192.144548656229 156.850172156377 -118.882876388969
190.975067225381 153.541993076430 -124.566001258287
182.555103162369 126.368981186358 -119.844918340478
182.812483468461 128.007138878434 -113.743649160264
180.471570994092 124.780984822731 -109.942138364603
179.431626434416 120.760351681686 -112.046149127550
158.988471817211 106.390504925843 -148.678083529213
163.030122722246 106.924722853795 -151.046578713735
163.076032613771 114.774864888327 -138.958172789500
165.734664274772 117.021099747379 -141.708246730943
184.503651838674 101.871498001443 -143.437468881541
183.888084688297 99.557028644881 -139.859485053799
176.405404670941 99.119026505831 -150.958984678269
176.321633436599 91.571765014203 -149.743123106647
171.627345466473 153.649968492225 -145.358924937549
173.748393989267 155.967581340197 -148.937781313179
180.223894839512 149.368676516969 -144.922298902245
180.245072964100 147.994570538515 -148.415699415270
190.067578666318 159.052769451032 -175.181682377692
186.100641326218 158.781287935248 -173.109890176064
189.512179456405 159.735638925326 -162.737717354640
192.255774891751 157.360032822218 -162.796504856293
[...]
CELL_DATA 411

SCALARS Nbranches float
LOOKUP_TABLE default
1.000000000000
1.000000000000
1.000000000000
1.000000000000
1.000000000000
1.000000000000
1.000000000000
1.000000000000
1.000000000000
1.000000000000
1.000000000000
1.000000000000
1.000000000000
1.000000000000
1.000000000000
1.000000000000
1.000000000000
1.000000000000
1.000000000000
1.000000000000
1.000000000000
1.000000000000
1.000000000000
1.000000000000
1.000000000000
1.000000000000
1.000000000000
1.000000000000
1.000000000000
1.000000000000
1.000000000000
1.000000000000
1.000000000000
1.000000000000
1.000000000000
1.000000000000
1.000000000000
1.000000000000
1.000000000000
1.000000000000
1.000000000000
1.000000000000
1.000000000000
1.000000000000
1.000000000000
1.000000000000
1.000000000000
1.000000000000
1.000000000000
1.000000000000
1.000000000000
1.000000000000
1.000000000000
1.000000000000
1.000000000000
1.000000000000
1.000000000000
1.000000000000
1.000000000000
1.000000000000
1.000000000000
1.000000000000
1.000000000000
1.000000000000
1.000000000000
1.000000000000
1.000000000000
1.000000000000
1.000000000000
1.000000000000
1.000000000000
1.000000000000
1.000000000000
1.000000000000
1.000000000000
1.000000000000
1.000000000000
1.000000000000
1.000000000000
1.000000000000
1.000000000000
1.000000000000
1.000000000000
1.000000000000
1.000000000000
1.000000000000
1.000000000000
1.000000000000
1.000000000000
1.000000000000
1.000000000000
1.000000000000
1.000000000000
1.000000000000
1.000000000000
1.000000000000
1.000000000000
1.000000000000
1.000000000000
1.000000000000
1.000000000000
1.000000000000
1.000000000000
1.000000000000
1.000000000000
1.000000000000
1.000000000000
1.000000000000
1.000000000000
1.000000000000
1.000000000000
1.000000000000
1.000000000000
1.000000000000
1.000000000000
1.000000000000
1.000000000000
1.000000000000
1.000000000000
1.000000000000
1.000000000000
1.000000000000
1.000000000000
1.000000000000
1.000000000000
1.000000000000
1.000000000000
1.000000000000
1.000000000000
1.000000000000
1.000000000000
1.000000000000
1.000000000000
1.000000000000
1.000000000000
1.000000000000
1.000000000000
1.000000000000
1.000000000000
1.000000000000
1.000000000000
1.000000000000
1.000000000000
1.000000000000
1.000000000000
1.000000000000
1.000000000000
1.000000000000
1.000000000000
1.000000000000
1.000000000000
1.000000000000
1.000000000000
1.000000000000
1.000000000000
1.000000000000
1.000000000000
1.000000000000
1.000000000000
1.000000000000
1.000000000000
1.000000000000
1.000000000000
1.000000000000
1.000000000000
1.000000000000
1.000000000000
1.000000000000
1.000000000000
1.000000000000
1.000000000000
1.000000000000
1.000000000000
1.000000000000
1.000000000000
1.000000000000
1.000000000000
1.000000000000
1.000000000000
1.000000000000
1.000000000000
1.000000000000
1.000000000000
1.000000000000
1.000000000000
1.000000000000
1.000000000000
1.000000000000
1.000000000000
1.000000000000
1.000000000000
1.000000000000
1.000000000000
1.000000000000
1.000000000000
1.000000000000
1.000000000000
1.000000000000
1.000000000000
1.000000000000
1.000000000000
1.000000000000
1.000000000000
1.000000000000
1.000000000000
1.000000000000
1.000000000000
1.000000000000
1.000000000000
1.000000000000
1.000000000000
1.000000000000
1.000000000000
1.000000000000
1.000000000000
1.000000000000
1.000000000000
1.000000000000
1.000000000000
1.000000000000
1.000000000000
1.000000000000
1.000000000000
1.000000000000
1.000000000000
1.000000000000
1.000000000000
1.000000000000
1.000000000000
1.000000000000
1.000000000000
1.000000000000
1.000000000000
1.000000000000
1.000000000000
1.000000000000
1.000000000000
1.000000000000
1.000000000000
1.000000000000
1.000000000000
1.000000000000
1.000000000000
1.000000000000
1.000000000000
1.000000000000
1.000000000000
1.000000000000
1.000000000000
1.000000000000
1.000000000000
1.000000000000
1.000000000000
1.000000000000
1.000000000000
1.000000000000
1.000000000000
1.000000000000
1.000000000000
1.000000000000
1.000000000000
1.000000000000
1.000000000000
1.000000000000
1.000000000000
1.000000000000
1.000000000000
1.000000000000
1.000000000000
1.000000000000
1.000000000000
1.000000000000
1.000000000000
1.000000000000
1.000000000000
1.000000000000
1.000000000000
1.000000000000
1.000000000000
1.000000000000
1.000000000000
1.000000000000
1.000000000000
1.000000000000
1.000000000000
1.000000000000
1.000000000000
1.000000000000
1.000000000000
1.000000000000
1.000000000000
1.000000000000
1.000000000000
1.000000000000
1.000000000000
1.000000000000
1.000000000000
1.000000000000
1.000000000000
1.000000000000
1.000000000000
1.000000000000
1.000000000000
1.000000000000
1.000000000000
1.000000000000
1.000000000000
1.000000000000
1.000000000000
1.000000000000
1.000000000000
1.000000000000
1.000000000000
1.000000000000
1.000000000000
1.000000000000
1.000000000000
1.000000000000
1.000000000000
1.000000000000
1.000000000000
1.000000000000
1.000000000000
1.000000000000
1.000000000000
1.000000000000
1.000000000000
1.000000000000
1.000000000000
1.000000000000
1.000000000000
1.000000000000
1.000000000000
1.000000000000
1.000000000000
1.000000000000
1.000000000000
1.000000000000
1.000000000000
1.000000000000
1.000000000000
1.000000000000
1.000000000000
1.000000000000
1.000000000000
1.000000000000
1.000000000000
1.000000000000
1.000000000000
1.000000000000
1.000000000000
1.000000000000
1.000000000000
1.000000000000
1.000000000000
1.000000000000
1.000000000000
1.000000000000
1.000000000000
1.000000000000
1.000000000000
1.000000000000
1.000000000000
1.000000000000
1.000000000000
1.000000000000
1.000000000000
1.000000000000
1.000000000000
1.000000000000
1.000000000000
1.000000000000
1.000000000000
1.000000000000
1.000000000000
1.000000000000
1.000000000000
1.000000000000
1.000000000000
1.000000000000
1.000000000000
1.000000000000
1.000000000000
1.000000000000
1.000000000000
1.000000000000
1.000000000000
1.000000000000
1.000000000000
1.000000000000
1.000000000000
1.000000000000
1.000000000000
1.000000000000
1.000000000000
1.000000000000
1.000000000000
1.000000000000
1.000000000000
1.000000000000
1.000000000000
1.000000000000
1.000000000000
1.000000000000
1.000000000000
1.000000000000
1.000000000000
1.000000000000
1.000000000000
1.000000000000
1.000000000000

SCALARS Inner_rad float
LOOKUP_TABLE default
5.400000000000
5.200000000000
3.500000000000
2.700000000000
1.300000000000
1.200000000000
3.600000000000
2.900000000000
1.500000000000
1.000000000000
1.300000000000
4.100000000000
3.000000000000
3.000000000000
2.900000000000
2.700000000000
1.500000000000
1.200000000000
2.400000000000
1.200000000000
1.900000000000
1.700000000000
1.200000000000
1.300000000000
3.500000000000
3.200000000000
3.500000000000
2.100000000000
1.600000000000
1.200000000000
1.100000000000
2.300000000000
1.400000000000
1.500000000000
0.890000000000
2.000000000000
1.200000000000
1.400000000000
3.300000000000
2.000000000000
2.100000000000
2.700000000000
2.300000000000
1.400000000000
2.800000000000
1.500000000000
1.700000000000
2.400000000000
1.800000000000
1.600000000000
1.900000000000
2.200000000000
1.700000000000
1.400000000000
3.200000000000
1.700000000000
1.400000000000
2.000000000000
1.100000000000
0.790000000000
0.920000000000
0.620000000000
0.720000000000
0.780000000000
0.590000000000
0.820000000000
0.830000000000
0.810000000000
1.000000000000
0.990000000000
0.800000000000
0.770000000000
0.790000000000
0.740000000000
0.750000000000
0.790000000000
0.760000000000
0.680000000000
0.720000000000
0.650000000000
0.810000000000
1.100000000000
0.770000000000
0.620000000000
1.100000000000
1.700000000000
1.700000000000
1.100000000000
0.630000000000
0.750000000000
0.930000000000
0.960000000000
0.840000000000
0.760000000000
0.920000000000
1.400000000000
2.500000000000
2.500000000000
2.100000000000
1.300000000000
0.860000000000
0.980000000000
1.700000000000
2.200000000000
2.100000000000
2.200000000000
1.300000000000
2.100000000000
1.700000000000
1.100000000000
0.780000000000
3.200000000000
2.800000000000
2.100000000000
1.800000000000
1.900000000000
1.600000000000
-1.000000000000
-1.000000000000
-1.000000000000
-1.000000000000
-1.000000000000
-1.000000000000
-1.000000000000
-1.000000000000
-1.000000000000
-1.000000000000
-1.000000000000
-1.000000000000
-1.000000000000
-1.000000000000
-1.000000000000
-1.000000000000
-1.000000000000
-1.000000000000
-1.000000000000
-1.000000000000
-1.000000000000
-1.000000000000
-1.000000000000
-1.000000000000
-1.000000000000
-1.000000000000
-1.000000000000
-1.000000000000
-1.000000000000
-1.000000000000
-1.000000000000
-1.000000000000
-1.000000000000
-1.000000000000
-1.000000000000
-1.000000000000
-1.000000000000
-1.000000000000
-1.000000000000
-1.000000000000
-1.000000000000
-1.000000000000
-1.000000000000
-1.000000000000
-1.000000000000
-1.000000000000
-1.000000000000
-1.000000000000
-1.000000000000
-1.000000000000
-1.000000000000
-1.000000000000
-1.000000000000
-1.000000000000
-1.000000000000
-1.000000000000
-1.000000000000
-1.000000000000
-1.000000000000
-1.000000000000
-1.000000000000
-1.000000000000
-1.000000000000
-1.000000000000
-1.000000000000
-1.000000000000
-1.000000000000
-1.000000000000
-1.000000000000
-1.000000000000
-1.000000000000
-1.000000000000
-1.000000000000
-1.000000000000
-1.000000000000
-1.000000000000
-1.000000000000
-1.000000000000
-1.000000000000
-1.000000000000
-1.000000000000
-1.000000000000
-1.000000000000
-1.000000000000
-1.000000000000
-1.000000000000
-1.000000000000
-1.000000000000
-1.000000000000
-1.000000000000
-1.000000000000
-1.000000000000
-1.000000000000
-1.000000000000
-1.000000000000
-1.000000000000
-1.000000000000
-1.000000000000
-1.000000000000
-1.000000000000
-1.000000000000
-1.000000000000
-1.000000000000
-1.000000000000
-1.000000000000
-1.000000000000
-1.000000000000
-1.000000000000
-1.000000000000
-1.000000000000
-1.000000000000
-1.000000000000
-1.000000000000
-1.000000000000
-1.000000000000
-1.000000000000
-1.000000000000
-1.000000000000
-1.000000000000
-1.000000000000
-1.000000000000
-1.000000000000
-1.000000000000
-1.000000000000
-1.000000000000
-1.000000000000
-1.000000000000
-1.000000000000
-1.000000000000
-1.000000000000
-1.000000000000
-1.000000000000
-1.000000000000
-1.000000000000
-1.000000000000
-1.000000000000
-1.000000000000
-1.000000000000
-1.000000000000
-1.000000000000
-1.000000000000
-1.000000000000
-1.000000000000
-1.000000000000
-1.000000000000
-1.000000000000
-1.000000000000
-1.000000000000
-1.000000000000
-1.000000000000
-1.000000000000
-1.000000000000
-1.000000000000
-1.000000000000
-1.000000000000
-1.000000000000
-1.000000000000
-1.000000000000
-1.000000000000
-1.000000000000
-1.000000000000
-1.000000000000
-1.000000000000
-1.000000000000
-1.000000000000
-1.000000000000
-1.000000000000
-1.000000000000
-1.000000000000
-1.000000000000
-1.000000000000
-1.000000000000
-1.000000000000
-1.000000000000
-1.000000000000
-1.000000000000
-1.000000000000
-1.000000000000
-1.000000000000
-1.000000000000
-1.000000000000
-1.000000000000
-1.000000000000
-1.000000000000
-1.000000000000
-1.000000000000
-1.000000000000
-1.000000000000
-1.000000000000
-1.000000000000
-1.000000000000
-1.000000000000
-1.000000000000
-1.000000000000
-1.000000000000
-1.000000000000
-1.000000000000
-1.000000000000
-1.000000000000
-1.000000000000
-1.000000000000
-1.000000000000
-1.000000000000
-1.000000000000
-1.000000000000
-1.000000000000
-1.000000000000
-1.000000000000
-1.000000000000
-1.000000000000
-1.000000000000
-1.000000000000
-1.000000000000
-1.000000000000
-1.000000000000
-1.000000000000
-1.000000000000
-1.000000000000
-1.000000000000
-1.000000000000
-1.000000000000
-1.000000000000
-1.000000000000
-1.000000000000
-1.000000000000
-1.000000000000
-1.000000000000
-1.000000000000
-1.000000000000
-1.000000000000
-1.000000000000
-1.000000000000
-1.000000000000
-1.000000000000
-1.000000000000
-1.000000000000
-1.000000000000
-1.000000000000
-1.000000000000
-1.000000000000
-1.000000000000
-1.000000000000
-1.000000000000
-1.000000000000
-1.000000000000
-1.000000000000
-1.000000000000
-1.000000000000
-1.000000000000
-1.000000000000
-1.000000000000
-1.000000000000
-1.000000000000
-1.000000000000
-1.000000000000
-1.000000000000
-1.000000000000
-1.000000000000
-1.000000000000
-1.000000000000
-1.000000000000
-1.000000000000
-1.000000000000
-1.000000000000
-1.000000000000
-1.000000000000
-1.000000000000
-1.000000000000
-1.000000000000
-1.000000000000
-1.000000000000
-1.000000000000
-1.000000000000
-1.000000000000
-1.000000000000
-1.000000000000
-1.000000000000
-1.000000000000
-1.000000000000
-1.000000000000
-1.000000000000
-1.000000000000
-1.000000000000
-1.000000000000
-1.000000000000
-1.000000000000
-1.000000000000
-1.000000000000
-1.000000000000
-1.000000000000
-1.000000000000
-1.000000000000
-1.000000000000
-1.000000000000
